<?xml version="1.0" encoding="UTF-8"?>

<!-- generated on 2023-05-08 20:07:22 by Eclipse SUMO GUI Version 1.15.0
<configuration xmlns:xsi="http://www.w3.org/2001/XMLSchema-instance" xsi:noNamespaceSchemaLocation="http://sumo.dlr.de/xsd/sumoConfiguration.xsd">

    <input>
        <net-file value="/opt/homebrew/Cellar/sumo/1.15.0/share/sumo/tools/jogja_traffic/one_intersection.net.xml"/>
        <route-files value="/opt/homebrew/Cellar/sumo/1.15.0/share/sumo/tools/jogja_traffic/one_intersection.rou.xml"/>
        <additional-files value="/opt/homebrew/Cellar/sumo/1.15.0/share/sumo/tools/jogja_traffic/inductionloop.xml"/>
    </input>

    <processing>
        <ignore-route-errors value="true"/>
    </processing>

    <routing>
        <device.rerouting.adaptation-steps value="18"/>
        <device.rerouting.adaptation-interval value="10"/>
    </routing>

    <report>
        <verbose value="true"/>
        <duration-log.statistics value="true"/>
        <no-step-log value="true"/>
    </report>

    <gui_only>
        <gui-settings-file value="/opt/homebrew/Cellar/sumo/1.15.0/share/sumo/tools/jogja_traffic/osm.view.xml"/>
    </gui_only>

</configuration>
-->

<detector xmlns:xsi="http://www.w3.org/2001/XMLSchema-instance" xsi:noNamespaceSchemaLocation="http://sumo.dlr.de/xsd/det_e1_file.xsd">
</detector>
